Generated by pymatgen.io.lammps.data.LammpsData

72  atoms

 3  atom types

0.000000 14.161108  xlo xhi
0.000000 9.971684  ylo yhi
0.000000 9.708832  zlo zhi
0.000000 0.000000 -2.274434  xy xz yz

Masses

1   6.941
2  72.640
3  32.065

Atoms

1   1  8.309257  0.892483  4.270139
2   1  8.309257  4.741108  9.124555
3   1 12.932405 -4.093358  4.270139
4   1 12.932405 -0.244734  9.124555
5   1  5.851851 -3.166917  5.438694
6   1  5.851851  0.681707 10.293110
7   1  1.228703  1.818924  5.438694
8   1  1.228703  5.667549 10.293110
9   1 11.653983  2.663746  3.363518
10  1 11.653983  6.512370  8.217934
11  1  9.587679 -5.380086  5.787920
12  1  9.587679 -1.531462 10.642337
13  1  2.507125 -1.880189  3.920912
14  1  2.507125  1.968435  8.775328
15  1  4.573429  0.047662  6.345314
16  1  4.573429  3.896287 11.199730
17  1  2.507125 -4.938180  6.345314
18  1  2.507125 -1.089555 11.199730
19  1  4.573429  3.105652  3.920912
20  1  4.573429  6.954277  8.775328
21  1 11.653983 -0.394245  5.787920
22  1 11.653983  3.454380 10.642337
23  1  9.587679 -2.322096  3.363518
24  1  9.587679  1.526529  8.217934
25  1  0.000000  1.924312  2.427208
26  1  0.000000  5.772937  7.281624
27  1  7.080554  0.000000  0.000000
28  1  7.080554  3.848625  4.854416
29  1  0.000000 -1.137217  4.854416
30  1  0.000000  2.711408  9.708832
31  1  7.080554 -3.061529  2.427208
32  1  7.080554  0.787095  7.281624
33  2  1.262194 -1.321771  7.766046
34  2  1.262194  2.526854 12.620463
35  2 12.898914 -0.952663  1.942786
36  2 12.898914  2.895962  6.797202
37  2  8.342748 -2.089880  6.797202
38  2  8.342748  1.758745 11.651618
39  2  5.818360 -0.184554  2.911630
40  2  5.818360  3.664071  7.766046
41  3  0.881302 -0.494038  2.521267
42  3  0.881302  3.354587  7.375683
43  3  7.961856 -0.643179  2.333149
44  3  7.961856  3.205445  7.187565
45  3  6.199252 -1.631255  7.375683
46  3  6.199252  2.217370 12.230100
47  3 13.279806 -1.780396  7.187565
48  3 13.279806  2.068228 12.041981
49  3  9.292986 -3.023397  8.591244
50  3  9.292986  0.825227 13.445660
51  3 11.948676  1.007014  1.443077
52  3 11.948676  4.855639  6.297493
53  3  4.868122 -2.144231  3.411339
54  3  4.868122  1.704394  8.265755
55  3  2.212432 -0.388253  5.972005
56  3  2.212432  3.460371 10.826421
57  3  4.868122  0.748963  1.117589
58  3  4.868122  4.597588  5.972005
59  3  2.212432 -3.281448  8.265755
60  3  2.212432  0.567177 13.120171
61  3  9.292986 -0.130203  6.297493
62  3  9.292986  3.718422 11.151909
63  3 11.948676 -1.886180  3.736828
64  3 11.948676  1.962444  8.591244
65  3 12.946042  1.510638  5.049840
66  3 12.946042  5.359263  9.904257
67  3  8.295620 -3.475204  5.049840
68  3  8.295620  0.373421  9.904257
69  3  1.215066 -3.785072  4.658992
70  3  1.215066  0.063553  9.513408
71  3  5.865488  1.200770  4.658992
72  3  5.865488  5.049395  9.513408

